 Gaussian 16, Revision A.03,
 Gaussian 16:  EM64M-G16RevA.03 25-Dec-2016

 --------------
 # b3lyp/6-31G*
 --------------

 -------------------
 Title Card Required
 -------------------
 Symbolic Z-matrix:
 Charge =  0 Multiplicity = 1

                         Standard orientation:
 ---------------------------------------------------------------------
 Center     Atomic      Atomic             Coordinates (Angstroms)
 Number     Number       Type             X           Y           Z
 ---------------------------------------------------------------------
      1          6           0        2.123994   -0.222752    0.002187
      2          8           0        1.257641   -1.095337   -0.037671
      3          8           0        1.714164    1.070771    0.017965
      4          1           0        3.223025   -0.313884    0.028384
      5          1           0        0.744666    1.122484   -0.005733
      6          6           0       -2.139011    0.182737   -0.017512
      7          8           0       -1.353496    1.129534   -0.007255
      8          8           0       -1.616958   -1.068736    0.034302
      9          1           0       -3.241135    0.174851   -0.063545
     10          1           0       -0.647259   -1.033219    0.074114
 ---------------------------------------------------------------------

 SCF Done:  E(RB3LYP) =  -379.524458927     A.U. after   13 cycles

 The electronic state is 1-A.
 Alpha  occ. eigenvalues --  -19.20075 -19.19047 -19.16872 -19.16054 -10.34758
 Alpha  occ. eigenvalues --  -10.33928  -1.11489  -1.10480  -1.02250  -1.01196
 Alpha  occ. eigenvalues --   -0.67852  -0.66264  -0.53940  -0.52375  -0.49806
 Alpha  occ. eigenvalues --   -0.48257  -0.44990  -0.44110  -0.42330  -0.38935
 Alpha  occ. eigenvalues --   -0.33062  -0.32096  -0.30365  -0.29352
 Alpha virt. eigenvalues --   -0.02311  -0.01464   0.09061   0.11353   0.13299
 Alpha virt. eigenvalues --    0.15510   0.23704   0.27475   0.28961   0.30155
 Alpha virt. eigenvalues --    0.49794   0.50714   0.51871   0.53299   0.61544

 Mulliken charges:
               1
     1  C    0.386645
     2  O   -0.445240
     3  O   -0.550048
     4  H    0.177999
     5  H    0.441003
     6  C    0.380672
     7  O   -0.449158
     8  O   -0.558307
     9  H    0.171138
    10  H    0.445295
 Sum of Mulliken charges =   0.00000

 Dipole moment (field-independent basis, Debye):
    X=              0.3257    Y=             -0.0560    Z=              0.0492  Tot=              0.3341
 Quadrupole moment (field-independent basis, Debye-Ang):
   XX=            -22.6932   YY=            -40.8869   ZZ=            -33.2557
   XY=             -1.7814   XZ=              0.2535   YZ=             -0.2020

 Normal termination of Gaussian 16 at Wed Apr 29 13:20:08 2020.
